
 Primary working directories    : /tmp/sjlee/molpro.zjm6TNGIEE
 Secondary working directories  : /tmp/sjlee/molpro.zjm6TNGIEE
 Wavefunction directory         : /home/sjlee/wfu/
 Main file repository           : /tmp/sjlee/molpro.zjm6TNGIEE/

 id        : sjlee

 Nodes             nprocs
 tachus.caltech.edu    4

 Using customized tuning parameters: mindgm=1; mindgv=20; mindgc=4; mindgr=1; noblas=0; minvec=7
 default implementation of scratch files=sf  


 Variables initialized (934), CPU time= 0.03 sec
                                                                                 !Title
 memory,800,M
 
 {gthresh,orbital=1.0d-07}
 {grid,name=NEESE,neese_index=7}
 {symmetry,nosym}
 
 geometry = ts.xyz
 Including file /home/sjlee/projects/wccr10/scripts_wccr10/scripts_wccr10/even_handed/sn2_test/MP2_def2-svp/image2/ts.xyz
 
 basis={
 default,def2-svp
 ecp,I,ecp46mdf
 ecp,Br,ecp28mdf
 }
 
 set,charge=-1
 
 {hf}
 {mp2}
 Commands  initialized (761), CPU time= 0.02 sec, 617 directives.
 Default parameters read. Elapsed time= 0.15 sec

 Checking input...
 Passed
1


                                         ***  PROGRAM SYSTEM MOLPRO  ***
                                       Copyright, TTI GmbH Stuttgart, 2015
                                    Version 2019.2 linked May  2 2019 15:37:00


 **********************************************************************************************************************************
 LABEL *                                                                                 
  64 bit mpp version                                                                     DATE: 11-Jun-19          TIME: 11:25:02  
 **********************************************************************************************************************************

 SHA1:             8138d7467d1acbebe89db460979ba3ffe8b2d70c
 **********************************************************************************************************************************

 THRESHOLDS:

 ZERO    =  1.00D-12  ONEINT  =  1.00D-12  TWOINT  =  1.00D-11  PREFAC  =  1.00D-14  XXXXXX  =  1.00D-09  EORDER  =  1.00D-04
 ENERGY  =  0.00D+00  ETEST   =  0.00D+00  EDENS   =  0.00D+00  THRDEDEF=  1.00D-06  GRADIENT=  1.00D-02  STEP    =  1.00D-03
 ORBITAL =  1.00D-07  CIVEC   =  1.00D-05  COEFF   =  1.00D-04  PRINTCI =  5.00D-02  PUNCHCI =  9.90D+01  OPTGRAD =  3.00D-04
 OPTENERG=  1.00D-06  OPTSTEP =  3.00D-04  THRGRAD =  1.00D-10  COMPRESS=  1.00D-11  VARMIN  =  1.00D-07  VARMAX  =  1.00D-03
 THRDOUB =  0.00D+00  THRDIV  =  1.00D-05  THRRED  =  1.00D-07  THRPSP  =  1.00D+00  THRDC   =  1.00D-10  THRCS   =  1.00D-10
 THRNRM  =  1.00D-08  THREQ   =  0.00D+00  THRDE   =  1.00D+00  THRREF  =  1.00D-05  SPARFAC =  1.00D+00  THRDLP  =  1.00D-07
 THRDIA  =  1.00D-10  THRDLS  =  1.00D-07  THRGPS  =  0.00D+00  THRKEX  =  0.00D+00  THRDIS  =  2.00D-01  THRVAR  =  1.00D-10
 THRLOC  =  1.00D-06  THRGAP  =  1.00D-06  THRLOCT = -1.00D+00  THRGAPT = -1.00D+00  THRORB  =  1.00D-06  THRMLTP =  0.00D+00
 THRCPQCI=  1.00D-10  KEXTA   =  0.00D+00  THRCOARS=  0.00D+00  SYMTOL  =  1.00D-06  GRADTOL =  1.00D-06  THROVL  =  1.00D-08
 THRORTH =  1.00D-08  GRID    =  1.00D-06  GRIDMAX =  1.00D-03  DTMAX   =  0.00D+00  THROCCDE=  1.00D-01  THROCCDE=  1.00D-01
 THRPRINT=  2.50D-01


 Variable memory set to  800000000 words,  buffer space 


 Use libxcgrid:  T
 Grid name: NEESE


 **********************************************************************************************************************************
 PROGRAMS   *        TOTAL      GRID
 CPU TIMES  *         0.23      0.00
 REAL TIME  *         0.25 SEC
 DISK USED  *         0.03 MB (local),        0.13 MB (total)
 **********************************************************************************************************************************
 ZSYMEL=NOSYM


Geometry recognized as XYZ

 SETTING BASIS          =    USERDEF
 SETTING CHARGE         =        -1.00000000                                  


 Recomputing integrals since basis changed


 Using spherical harmonics

 Library entry I    ECP ECP46MDF                 selected for group  4
 Library entry Br   ECP ECP28MDF                 selected for group  2
 Library entry C      S def2-SVP             selected for orbital group  1
 Library entry C      P def2-SVP             selected for orbital group  1
 Library entry C      D def2-SVP             selected for orbital group  1
 Library entry BR     S def2-SVP             selected for orbital group  2
 Library entry BR     P def2-SVP             selected for orbital group  2
 Library entry BR     D def2-SVP             selected for orbital group  2
 Library entry H      S def2-SVP             selected for orbital group  3
 Library entry H      P def2-SVP             selected for orbital group  3
 Library entry I      S def2-SVP             selected for orbital group  4
 Library entry I      P def2-SVP             selected for orbital group  4
 Library entry I      D def2-SVP             selected for orbital group  4


 PROGRAM * SEWARD (Integral evaluation for generally contracted gaussian basis sets)     Author: Roland Lindh, 1990

 Geometry written to block  1 of record 700


 Point group  C1  



 ATOMIC COORDINATES

 NR  ATOM    CHARGE       X              Y              Z

   1  C       6.00   -8.536283348    3.286615273    0.000068929
   2  BR      7.00   -3.400685172    3.280582625    0.000436566
   3  H       1.00   -8.342073341    1.281477098   -0.279990714
   4  H       1.00   -8.338622332    4.531334326   -1.596282375
   5  H       1.00   -8.338661363    4.046535516    1.876283069
   6  I       7.00  -13.468181490    3.294938278    0.000267481

 Bond lengths in Bohr (Angstrom)

 1-2  5.135601733  1-3  2.033895285  1-4  2.033895986  1-5  2.033891031  1-6  4.931905169
     ( 2.717643401)     ( 1.076291034)     ( 1.076291405)     ( 1.076288783)     ( 2.609851822)

 Bond angles

  2-1-3   84.45457611   2-1-4   84.46761812   2-1-5   84.44555563   2-1-6  179.96992170

  3-1-4  119.07675658   3-1-5  119.08387751   3-1-6   95.57541559   4-1-5  119.07325995

  4-1-6   95.51936204   5-1-6   95.53746930

 NUCLEAR CHARGE:                   23
 NUMBER OF PRIMITIVE AOS:         193
 NUMBER OF SYMMETRY AOS:          180
 NUMBER OF CONTRACTIONS:           87   (   87A   )
 NUMBER OF CORE ORBITALS:           1   (    1A   )
 NUMBER OF VALENCE ORBITALS:       15   (   15A   )


 LX: A            LY: A            LZ: A  


 NUCLEAR REPULSION ENERGY   39.00993010



 Eigenvalues of metric

         1 0.158E-01 0.404E-01 0.508E-01 0.508E-01 0.682E-01 0.812E-01 0.940E-01 0.124E+00


 Contracted 2-electron integrals neglected if value below      1.0D-11
 AO integral compression algorithm  1   Integral accuracy      1.0D-11

     18.612 MB (compressed) written to integral file ( 24.0%)

     Node minimum: 2.884 MB, node maximum: 9.175 MB


 NUMBER OF SORTED TWO-ELECTRON INTEGRALS:    1833612.     BUFFER LENGTH:  32768
 NUMBER OF SEGMENTS:   1  SEGMENT LENGTH:    1833612      RECORD LENGTH: 524288

 Memory used in sort:       2.39 MW

 SORT1 READ     9633848. AND WROTE      971340. INTEGRALS IN      3 RECORDS. CPU TIME:     0.15 SEC, REAL TIME:     0.17 SEC
 SORT2 READ     3864370. AND WROTE     7328706. INTEGRALS IN     56 RECORDS. CPU TIME:     0.07 SEC, REAL TIME:     0.09 SEC

 Node minimum:     1830741.  Node maximum:     1833612. integrals

 OPERATOR DM      FOR CENTER  0  COORDINATES:    0.000000    0.000000    0.000000


 **********************************************************************************************************************************
 DATASETS  * FILE   NREC   LENGTH (MB)   RECORD NAMES
              1      19       30.46       500      610      700      900      950      970     1000      129      960     1100   
                                          VAR    BASINP    GEOM    SYMINP    ZMAT    AOBASIS   BASIS     P2S    ABASIS      S 
                                         1400     1410     1420     1200     1210     1080     1700     1600     1650   
                                           T        V       ECP      H0       H01     AOSYM    OPER      SMH    MOLCAS    

 PROGRAMS   *        TOTAL       INT      GRID
 CPU TIMES  *         2.27      2.04      0.00
 REAL TIME  *         7.91 SEC
 DISK USED  *        30.84 MB (local),      188.52 MB (total)
 GA USED    *         0.00 MB       (max)       0.00 MB       (current)
 **********************************************************************************************************************************


 PROGRAM * RHF-SCF (CLOSED SHELL)       Authors: W. Meyer, H.-J. Werner


 NUMBER OF ELECTRONS:      12+   12-    SPACE SYMMETRY=1    SPIN SYMMETRY: Singlet 
 CONVERGENCE THRESHOLDS:    1.00E-07 (Density)    1.00E-07 (Energy)
 MAX. NUMBER OF ITERATIONS:       60
 INTERPOLATION TYPE:            DIIS
 INTERPOLATION STEPS:              2 (START)      1 (STEP)
 LEVEL SHIFTS:                  0.00 (CLOSED)  0.00 (OPEN) 



 Orbital guess generated from atomic densities. Full valence occupancy:   12

 Molecular orbital dump at record        2100.2

 Initial occupancy:  12

 ITERATION    DDIFF          GRAD             ENERGY        2-EL.EN.            DIPOLE MOMENTS         DIIS   ORB.
    1      0.000D+00      0.000D+00       -63.58845682    143.470493    6.49916   -3.28532   -0.00050    0    start
    2      0.000D+00      0.500D-02       -63.62179409    142.760749    7.39314   -3.28652   -0.00046    1    diag
    3      0.781D-02      0.140D-02       -63.62576858    142.618349    7.42707   -3.28667   -0.00048    2    diag
    4      0.188D-02      0.616D-03       -63.62668214    142.682827    7.52082   -3.28681   -0.00048    3    diag
    5      0.943D-03      0.171D-03       -63.62679784    142.595344    7.56778   -3.28690   -0.00049    4    diag
    6      0.341D-03      0.832D-04       -63.62681580    142.605341    7.58024   -3.28692   -0.00049    5    diag
    7      0.157D-03      0.142D-04       -63.62681657    142.602435    7.58528   -3.28693   -0.00049    6    diag
    8      0.397D-04      0.300D-05       -63.62681660    142.602372    7.58611   -3.28693   -0.00049    7    diag
    9      0.862D-05      0.625D-06       -63.62681660    142.602360    7.58638   -3.28693   -0.00049    8    diag
   10      0.213D-05      0.180D-06       -63.62681660    142.602351    7.58647   -3.28693   -0.00049    9    orth
   11      0.503D-06      0.603D-07       -63.62681660    142.602351    7.58650   -3.28693   -0.00049    9    diag
   12      0.193D-06      0.108D-07       -63.62681660    142.602351    7.58651   -3.28693   -0.00049    9    diag
   13      0.320D-07      0.196D-08       -63.62681660    142.602351    7.58651   -3.28693   -0.00049    0    orth

 Final occupancy:  12

 !RHF STATE  1.1 Energy               -63.626816600171
 Nuclear energy                        39.00993010
 One-electron energy                 -173.93792203
 Two-electron energy                   71.30117533
 Virial quotient                       -1.35536188
 !RHF STATE  1.1 Dipole moment          7.58650733    -3.28692794    -0.00048658
 Dipole moment /Debye                  19.28171530    -8.35399031    -0.00123669

 Orbital energies:

         1.1          2.1          3.1          4.1          5.1          6.1          7.1          8.1          9.1         10.1
    -11.204109    -0.836585    -0.731581    -0.670124    -0.501144    -0.501123    -0.262700    -0.207670    -0.207668    -0.187828

        11.1         12.1         13.1         14.1
     -0.187828    -0.169425     0.211271     0.316341


 HOMO     12.1    -0.169425 =      -4.6103eV
 LUMO     13.1     0.211271 =       5.7490eV
 LUMO-HOMO         0.380696 =      10.3593eV


 **********************************************************************************************************************************
 DATASETS  * FILE   NREC   LENGTH (MB)   RECORD NAMES
              1      19       30.46       500      610      700      900      950      970     1000      129      960     1100   
                                          VAR    BASINP    GEOM    SYMINP    ZMAT    AOBASIS   BASIS     P2S    ABASIS      S 
                                         1400     1410     1420     1200     1210     1080     1700     1600     1650   
                                           T        V       ECP      H0       H01     AOSYM    OPER      SMH    MOLCAS    

              2       4        3.00       700     1000      520     2100   
                                         GEOM     BASIS   MCVARS     RHF  

 PROGRAMS   *        TOTAL    HF-SCF       INT      GRID
 CPU TIMES  *         2.79      0.52      2.04      0.00
 REAL TIME  *         8.70 SEC
 DISK USED  *        34.06 MB (local),      201.41 MB (total)
 SF USED    *         0.03 MB
 GA USED    *         0.00 MB       (max)       0.00 MB       (current)
 **********************************************************************************************************************************


 PROGRAM * MP2 (Closed-shell)     Authors: C. Hampel, H.-J. Werner, 1991, M. Deegan, P.J. Knowles, 1992


 Convergence thresholds:  THRVAR = 1.00D-08  THRDEN = 1.00D-06

 Number of core orbitals:           1 (   1 )
 Number of closed-shell orbitals:  11 (  11 )
 Number of external orbitals:      75 (  75 )

 Molecular orbitals read from record     2100.2  Type=RHF/CANONICAL (state 1.1)

 Number of N-1 electron functions:              11
 Number of N-2 electron functions:              66
 Number of singly external CSFs:               825
 Number of doubly external CSFs:            340725
 Total number of CSFs:                      341551

 Length of J-op  integral file:               0.00 MB
 Length of K-op  integral file:               0.52 MB

 Integral transformation finished. Total CPU:   0.12 sec, npass=  1  Memory used:   1.02 MW

 Memory needed for MP2:                      0.04 MW

 SCS-MP2 correlation energy:           -0.382479874898   (PS=  1.200000  PT=  0.333333)
 SCS-MP2 total energy:                -64.009296475070


  Reference energy                    -63.626816600171
  MP2 singlet pair energy              -0.245799699283
  MP2 triplet pair energy              -0.140657521755
  MP2 correlation energy               -0.386457221038

 !MP2 total energy                    -64.013273821209


 **********************************************************************************************************************************
 DATASETS  * FILE   NREC   LENGTH (MB)   RECORD NAMES
              1      20       36.60       500      610      700      900      950      970     1000      129      960     1100   
                                          VAR    BASINP    GEOM    SYMINP    ZMAT    AOBASIS   BASIS     P2S    ABASIS      S 
                                         1400     1410     1420     1200     1210     1080     1700     1600     1650     1380   
                                           T        V       ECP      H0       H01     AOSYM    OPER      SMH    MOLCAS    JKOP   

              2       4        3.00       700     1000      520     2100   
                                         GEOM     BASIS   MCVARS     RHF  

 PROGRAMS   *        TOTAL       MP2    HF-SCF       INT      GRID
 CPU TIMES  *         3.00      0.20      0.52      2.04      0.00
 REAL TIME  *         8.94 SEC
 DISK USED  *        39.65 MB (local),      223.77 MB (total)
 SF USED    *        14.28 MB
 GA USED    *         0.00 MB       (max)       0.00 MB       (current)
 **********************************************************************************************************************************
 Molecular orbitals read from record     2100.2  Type=RHF/CANONICAL (state 1.1)
 Occupation numbers read from record     2100.2  Type=RHF/RHF (state 1.1)
 Orbital energies read from record       2100.2  Type=RHF/CANONICAL (state 1.1)
 Redundancy group numbers read from rec  2100.2  Type=RHF/RHF (state 1.1)

 MP2/USERDEF energy=    -64.013273821209

             MP2          HF-SCF
    -64.01327382    -63.62681660
 **********************************************************************************************************************************
 Molpro calculation terminated
