
 Primary working directories    : /tmp/sjlee/molpro.jfL1nGKuR1
 Secondary working directories  : /tmp/sjlee/molpro.jfL1nGKuR1
 Wavefunction directory         : /home/sjlee/wfu/
 Main file repository           : /tmp/sjlee/molpro.jfL1nGKuR1/

 id        : sjlee

 Nodes             nprocs
 tachus.caltech.edu    4

 Using customized tuning parameters: mindgm=1; mindgv=20; mindgc=4; mindgr=1; noblas=0; minvec=7
 default implementation of scratch files=sf  


 Variables initialized (934), CPU time= 0.03 sec
 memory,800,M
 
 {gthresh,orbital=1.0d-07}
 {grid,name=NEESE,neese_index=7}
 {symmetry,nosym}
 
 geometry = reac.xyz
 Including file /home/sjlee/projects/wccr10/scripts_wccr10/scripts_wccr10/even_handed/sn2_test/CCSD_def2-tzvpp/image1/reac.xyz
 
 basis={
 default,def2-tzvpp
 ecp,I,ecp46mdf
 ecp,Br,ecp28mdf
 }
 
 set,charge=-1
 
 {hf}
 {ccsd}
 Commands  initialized (761), CPU time= 0.02 sec, 617 directives.
 Default parameters read. Elapsed time= 0.17 sec

 Checking input...
 Passed
1


                                         ***  PROGRAM SYSTEM MOLPRO  ***
                                       Copyright, TTI GmbH Stuttgart, 2015
                                    Version 2019.2 linked May  2 2019 15:37:00


 **********************************************************************************************************************************
 LABEL *                                                                                 
  64 bit mpp version                                                                     DATE: 11-Jun-19          TIME: 11:44:34  
 **********************************************************************************************************************************

 SHA1:             8138d7467d1acbebe89db460979ba3ffe8b2d70c
 **********************************************************************************************************************************

 THRESHOLDS:

 ZERO    =  1.00D-12  ONEINT  =  1.00D-12  TWOINT  =  1.00D-11  PREFAC  =  1.00D-14  XXXXXX  =  1.00D-09  EORDER  =  1.00D-04
 ENERGY  =  0.00D+00  ETEST   =  0.00D+00  EDENS   =  0.00D+00  THRDEDEF=  1.00D-06  GRADIENT=  1.00D-02  STEP    =  1.00D-03
 ORBITAL =  1.00D-07  CIVEC   =  1.00D-05  COEFF   =  1.00D-04  PRINTCI =  5.00D-02  PUNCHCI =  9.90D+01  OPTGRAD =  3.00D-04
 OPTENERG=  1.00D-06  OPTSTEP =  3.00D-04  THRGRAD =  1.00D-10  COMPRESS=  1.00D-11  VARMIN  =  1.00D-07  VARMAX  =  1.00D-03
 THRDOUB =  0.00D+00  THRDIV  =  1.00D-05  THRRED  =  1.00D-07  THRPSP  =  1.00D+00  THRDC   =  1.00D-10  THRCS   =  1.00D-10
 THRNRM  =  1.00D-08  THREQ   =  0.00D+00  THRDE   =  1.00D+00  THRREF  =  1.00D-05  SPARFAC =  1.00D+00  THRDLP  =  1.00D-07
 THRDIA  =  1.00D-10  THRDLS  =  1.00D-07  THRGPS  =  0.00D+00  THRKEX  =  0.00D+00  THRDIS  =  2.00D-01  THRVAR  =  1.00D-10
 THRLOC  =  1.00D-06  THRGAP  =  1.00D-06  THRLOCT = -1.00D+00  THRGAPT = -1.00D+00  THRORB  =  1.00D-06  THRMLTP =  0.00D+00
 THRCPQCI=  1.00D-10  KEXTA   =  0.00D+00  THRCOARS=  0.00D+00  SYMTOL  =  1.00D-06  GRADTOL =  1.00D-06  THROVL  =  1.00D-08
 THRORTH =  1.00D-08  GRID    =  1.00D-06  GRIDMAX =  1.00D-03  DTMAX   =  0.00D+00  THROCCDE=  1.00D-01  THROCCDE=  1.00D-01
 THRPRINT=  2.50D-01


 Variable memory set to  800000000 words,  buffer space 


 Use libxcgrid:  T
 Grid name: NEESE


 **********************************************************************************************************************************
 PROGRAMS   *        TOTAL      GRID
 CPU TIMES  *         0.24      0.00
 REAL TIME  *         0.27 SEC
 DISK USED  *         0.03 MB (local),        0.13 MB (total)
 **********************************************************************************************************************************
 ZSYMEL=NOSYM


Geometry recognized as XYZ

 SETTING BASIS          =    USERDEF
 SETTING CHARGE         =        -1.00000000                                  


 Recomputing integrals since basis changed


 Using spherical harmonics

 Library entry I    ECP ECP46MDF                 selected for group  4
 Library entry Br   ECP ECP28MDF                 selected for group  2
 Library entry C      S def2-TZVPP           selected for orbital group  1
 Library entry C      P def2-TZVPP           selected for orbital group  1
 Library entry C      D def2-TZVPP           selected for orbital group  1
 Library entry C      F def2-TZVPP           selected for orbital group  1
 Library entry BR     S def2-TZVPP           selected for orbital group  2
 Library entry BR     P def2-TZVPP           selected for orbital group  2
 Library entry BR     D def2-TZVPP           selected for orbital group  2
 Library entry BR     F def2-TZVPP           selected for orbital group  2
 Library entry H      S def2-TZVPP           selected for orbital group  3
 Library entry H      P def2-TZVPP           selected for orbital group  3
 Library entry H      D def2-TZVPP           selected for orbital group  3
 Library entry I      S def2-TZVPP           selected for orbital group  4
 Library entry I      P def2-TZVPP           selected for orbital group  4
 Library entry I      D def2-TZVPP           selected for orbital group  4
 Library entry I      F def2-TZVPP           selected for orbital group  4


 PROGRAM * SEWARD (Integral evaluation for generally contracted gaussian basis sets)     Author: Roland Lindh, 1990

 Geometry written to block  1 of record 700


 Point group  C1  



 ATOMIC COORDINATES

 NR  ATOM    CHARGE       X              Y              Z

   1  C       6.00   -7.608435700    3.285676873   -0.000018787
   2  BR      7.00   -3.944259453    3.280845800    0.000565018
   3  H       1.00   -8.290113470    1.369902540   -0.267805778
   4  H       1.00   -8.285768016    4.476615465   -1.526261697
   5  H       1.00   -8.286999093    4.013103707    1.793555655
   6  I       7.00  -14.008931312    3.295338731    0.000748545

 Bond lengths in Bohr (Angstrom)

 1-2  3.664179478  1-3  2.050996281  1-4  2.050982988  1-5  2.050977171
     ( 1.939000277)     ( 1.085340492)     ( 1.085333457)     ( 1.085330379)

 Bond angles

  2-1-3  109.33878446   2-1-4  109.33746799   2-1-5  109.34021965   3-1-4  109.60061537

  3-1-5  109.60328693   4-1-5  109.60597396

 NUCLEAR CHARGE:                   23
 NUMBER OF PRIMITIVE AOS:         325
 NUMBER OF SYMMETRY AOS:          292
 NUMBER OF CONTRACTIONS:          171   (  171A   )
 NUMBER OF CORE ORBITALS:           1   (    1A   )
 NUMBER OF VALENCE ORBITALS:       15   (   15A   )


 LX: A            LY: A            LZ: A  


 NUCLEAR REPULSION ENERGY   40.45743585



 Eigenvalues of metric

         1 0.555E-03 0.675E-03 0.676E-03 0.237E-02 0.441E-02 0.560E-02 0.135E-01 0.135E-01


 Contracted 2-electron integrals neglected if value below      1.0D-11
 AO integral compression algorithm  1   Integral accuracy      1.0D-11

     275.251 MB (compressed) written to integral file ( 26.5%)

     Node minimum: 48.759 MB, node maximum: 126.091 MB


 NUMBER OF SORTED TWO-ELECTRON INTEGRALS:   27033304.     BUFFER LENGTH:  32768
 NUMBER OF SEGMENTS:   2  SEGMENT LENGTH:   15989512      RECORD LENGTH: 524288

 Memory used in sort:      16.55 MW

 SORT1 READ   129978501. AND WROTE    16030297. INTEGRALS IN     47 RECORDS. CPU TIME:     2.20 SEC, REAL TIME:     2.59 SEC
 SORT2 READ    64126821. AND WROTE   108140571. INTEGRALS IN    768 RECORDS. CPU TIME:     0.78 SEC, REAL TIME:     0.96 SEC

 Node minimum:    27029628.  Node maximum:    27040658. integrals

 OPERATOR DM      FOR CENTER  0  COORDINATES:    0.000000    0.000000    0.000000


 **********************************************************************************************************************************
 DATASETS  * FILE   NREC   LENGTH (MB)   RECORD NAMES
              1      19       31.63       500      610      700      900      950      970     1000      129      960     1100   
                                          VAR    BASINP    GEOM    SYMINP    ZMAT    AOBASIS   BASIS     P2S    ABASIS      S 
                                         1400     1410     1420     1200     1210     1080     1700     1600     1650   
                                           T        V       ECP      H0       H01     AOSYM    OPER      SMH    MOLCAS    

 PROGRAMS   *        TOTAL       INT      GRID
 CPU TIMES  *         9.48      9.24      0.00
 REAL TIME  *        17.60 SEC
 DISK USED  *        32.04 MB (local),        1.20 GB (total)
 GA USED    *         0.00 MB       (max)       0.00 MB       (current)
 **********************************************************************************************************************************


 PROGRAM * RHF-SCF (CLOSED SHELL)       Authors: W. Meyer, H.-J. Werner


 NUMBER OF ELECTRONS:      12+   12-    SPACE SYMMETRY=1    SPIN SYMMETRY: Singlet 
 CONVERGENCE THRESHOLDS:    1.00E-07 (Density)    1.00E-07 (Energy)
 MAX. NUMBER OF ITERATIONS:       60
 INTERPOLATION TYPE:            DIIS
 INTERPOLATION STEPS:              2 (START)      1 (STEP)
 LEVEL SHIFTS:                  0.00 (CLOSED)  0.00 (OPEN) 



 Orbital guess generated from atomic densities. Full valence occupancy:   12

 Molecular orbital dump at record        2100.2

 Initial occupancy:  12

 ITERATION    DDIFF          GRAD             ENERGY        2-EL.EN.            DIPOLE MOMENTS         DIIS   ORB.
    1      0.000D+00      0.000D+00       -63.82838035    146.317374   12.95050   -3.29393   -0.00089    0    start
    2      0.000D+00      0.324D-02       -63.86347190    145.672271   12.54625   -3.29331   -0.00083    1    diag
    3      0.496D-02      0.795D-03       -63.86552249    145.635084   12.46494   -3.29321   -0.00085    2    diag
    4      0.736D-03      0.243D-03       -63.86578175    145.672371   12.44696   -3.29318   -0.00085    3    diag
    5      0.252D-03      0.602D-04       -63.86579429    145.637627   12.43074   -3.29316   -0.00085    4    diag
    6      0.527D-04      0.196D-04       -63.86579559    145.645083   12.42909   -3.29315   -0.00085    5    diag
    7      0.215D-04      0.432D-05       -63.86579569    145.643610   12.42832   -3.29315   -0.00085    6    diag
    8      0.536D-05      0.156D-05       -63.86579570    145.643799   12.42766   -3.29315   -0.00085    7    diag
    9      0.234D-05      0.396D-06       -63.86579570    145.643758   12.42756   -3.29315   -0.00085    8    diag
   10      0.566D-06      0.853D-07       -63.86579570    145.643779   12.42753   -3.29315   -0.00085    9    orth
   11      0.132D-06      0.149D-07       -63.86579570    145.643778   12.42754   -3.29315   -0.00085    9    diag
   12      0.253D-07      0.288D-08       -63.86579570    145.643778   12.42754   -3.29315   -0.00085    0    orth

 Final occupancy:  12

 !RHF STATE  1.1 Energy               -63.865795703714
 Nuclear energy                        40.45743585
 One-electron energy                 -177.14512054
 Two-electron energy                   72.82188898
 Virial quotient                       -1.34949620
 !RHF STATE  1.1 Dipole moment         12.42753535    -3.29315069    -0.00085220
 Dipole moment /Debye                  31.58557528    -8.36980594    -0.00216593

 Orbital energies:

         1.1          2.1          3.1          4.1          5.1          6.1          7.1          8.1          9.1         10.1
    -11.142041    -0.956637    -0.776187    -0.623853    -0.465132    -0.465122    -0.377953    -0.275638    -0.275637    -0.131076

        11.1         12.1         13.1         14.1
     -0.130697    -0.130697     0.269018     0.289187


 HOMO     12.1    -0.130697 =      -3.5564eV
 LUMO     13.1     0.269018 =       7.3204eV
 LUMO-HOMO         0.399715 =      10.8768eV


 **********************************************************************************************************************************
 DATASETS  * FILE   NREC   LENGTH (MB)   RECORD NAMES
              1      19       31.63       500      610      700      900      950      970     1000      129      960     1100   
                                          VAR    BASINP    GEOM    SYMINP    ZMAT    AOBASIS   BASIS     P2S    ABASIS      S 
                                         1400     1410     1420     1200     1210     1080     1700     1600     1650   
                                           T        V       ECP      H0       H01     AOSYM    OPER      SMH    MOLCAS    

              2       4        3.45       700     1000      520     2100   
                                         GEOM     BASIS   MCVARS     RHF  

 PROGRAMS   *        TOTAL    HF-SCF       INT      GRID
 CPU TIMES  *        13.81      4.33      9.24      0.00
 REAL TIME  *        22.28 SEC
 DISK USED  *        37.26 MB (local),        1.22 GB (total)
 SF USED    *         0.12 MB
 GA USED    *         0.00 MB       (max)       0.00 MB       (current)
 **********************************************************************************************************************************


 PROGRAM * CCSD (Closed-shell coupled cluster)     Authors: C. Hampel, H.-J. Werner, 1991, M. Deegan, P.J. Knowles, 1992


 Convergence thresholds:  THRVAR = 1.00D-08  THRDEN = 1.00D-06

 Number of core orbitals:           1 (   1 )
 Number of closed-shell orbitals:  11 (  11 )
 Number of external orbitals:     159 ( 159 )

 Molecular orbitals read from record     2100.2  Type=RHF/CANONICAL (state 1.1)

 Number of N-1 electron functions:              11
 Number of N-2 electron functions:              66
 Number of singly external CSFs:              1749
 Number of doubly external CSFs:           1530375
 Total number of CSFs:                     1532125

 Length of J-op  integral file:               0.00 MB
 Length of K-op  integral file:               2.01 MB
 Length of 3-ext integral record:             0.00 MB

 Integral transformation finished. Total CPU:   6.45 sec, npass=  1  Memory used:  34.03 MW

 Reference energy:                    -63.86579570

 MP2 singlet pair energy:              -0.33749647
 MP2 triplet pair energy:              -0.17982245
 MP2 correlation energy:               -0.51731891
 MP2 total energy:                    -64.38311462

 SCS-MP2 correlation energy:           -0.51688528   (PS=  1.200000  PT=  0.333333)
 SCS-MP2 total energy:                -64.38268099

 ITER.      SQ.NORM     CORR.ENERGY   TOTAL ENERGY   ENERGY CHANGE        DEN1      VAR(S)    VAR(P)  DIIS     TIME  TIME/IT
   1      1.23437159    -0.55518826   -64.42098396    -0.03786934    -0.02441498  0.15D-02  0.32D-02  1  1    10.56     4.24
   2      1.24958481    -0.55765478   -64.42345048    -0.00246652    -0.01352731  0.35D-04  0.27D-03  2  2    14.85     4.40
   3      1.25324963    -0.55765483   -64.42345054    -0.00000006    -0.00197524  0.20D-04  0.17D-04  3  3    19.26     4.50
   4      1.25431559    -0.55765427   -64.42344997     0.00000057    -0.00034167  0.20D-05  0.17D-05  4  4    23.59     4.55
   5      1.25460805    -0.55765942   -64.42345512    -0.00000515    -0.00005764  0.65D-06  0.17D-06  5  5    27.86     4.57
   6      1.25468814    -0.55765652   -64.42345223     0.00000290    -0.00001428  0.12D-06  0.36D-07  6  6    32.27     4.59
   7      1.25471632    -0.55765437   -64.42345007     0.00000216    -0.00000399  0.23D-07  0.63D-08  6  1    36.66     4.60
   8      1.25472676    -0.55765428   -64.42344999     0.00000008    -0.00000117  0.44D-08  0.10D-08  6  2    40.93     4.59
   9      1.25473022    -0.55765437   -64.42345007    -0.00000009     0.00000076  0.38D-09  0.18D-09  6  4    45.23     4.59

 Norm of t1 vector:      0.05709026      S-energy:     0.00000001      T1 diagnostic:  0.00860668
                                                                       D1 diagnostic:  0.02735986


 RESULTS
 =======

  Reference energy                    -63.865795703713
  CCSD singlet pair energy             -0.388705040959
  CCSD triplet pair energy             -0.168949337245
  CCSD correlation energy              -0.557654369278

 !CCSD total energy                   -64.423450072992

 Timing summary (sec):

 STEP                 CPU(USER)    SYS     CPU(TOT)    WALL
 Transformation          6.56      0.73      7.29      7.30
 CCSD iterations        38.70      2.92     41.62     41.64

 Program statistics:

 Available memory in ccsd:               799999504
 Min. memory needed in ccsd:               4125241
 Max. memory used in ccsd:                 5473885
 Max. memory used in cckext:               4132691 ( 9 integral passes)



 **********************************************************************************************************************************
 DATASETS  * FILE   NREC   LENGTH (MB)   RECORD NAMES
              1      20      233.28       500      610      700      900      950      970     1000      129      960     1100   
                                          VAR    BASINP    GEOM    SYMINP    ZMAT    AOBASIS   BASIS     P2S    ABASIS      S 
                                         1400     1410     1420     1200     1210     1080     1700     1600     1650     1380   
                                           T        V       ECP      H0       H01     AOSYM    OPER      SMH    MOLCAS    JKOP   

              2       4        3.45       700     1000      520     2100   
                                         GEOM     BASIS   MCVARS     RHF  

 PROGRAMS   *        TOTAL      CCSD    HF-SCF       INT      GRID
 CPU TIMES  *        59.12     45.30      4.33      9.24      0.00
 REAL TIME  *        71.40 SEC
 DISK USED  *       397.15 MB (local),        2.18 GB (total)
 SF USED    *       331.80 MB
 GA USED    *         0.00 MB       (max)       0.00 MB       (current)
 **********************************************************************************************************************************
 Molecular orbitals read from record     2100.2  Type=RHF/CANONICAL (state 1.1)
 Occupation numbers read from record     2100.2  Type=RHF/RHF (state 1.1)
 Orbital energies read from record       2100.2  Type=RHF/CANONICAL (state 1.1)
 Redundancy group numbers read from rec  2100.2  Type=RHF/RHF (state 1.1)

 CCSD/USERDEF energy=    -64.423450072992

            CCSD          HF-SCF
    -64.42345007    -63.86579570
 **********************************************************************************************************************************
 Molpro calculation terminated
