
 Primary working directories    : /tmp/sjlee/molpro.nOXJpGvXrG
 Secondary working directories  : /tmp/sjlee/molpro.nOXJpGvXrG
 Wavefunction directory         : /home/sjlee/wfu/
 Main file repository           : /tmp/sjlee/molpro.nOXJpGvXrG/

 id        : sjlee

 Nodes             nprocs
 tachus.caltech.edu    4

 Using customized tuning parameters: mindgm=1; mindgv=20; mindgc=4; mindgr=1; noblas=0; minvec=7
 default implementation of scratch files=sf  


 Variables initialized (934), CPU time= 0.03 sec
 memory,800,M
 
 {gthresh,orbital=1.0d-07}
 {grid,name=NEESE,neese_index=7}
 {symmetry,nosym}
 
 geometry = prod.xyz
 Including file /home/sjlee/projects/wccr10/scripts_wccr10/scripts_wccr10/even_handed/sn2_test/CCSD_def2-tzvpp/core_0/image3/prod.xyz
 
 basis={
 default,def2-tzvpp
 ecp,I,ecp46mdf
 ecp,Br,ecp28mdf
 }
 
 set,charge=-1
 
 {hf}
 {ccsd;core,0}
 Commands  initialized (761), CPU time= 0.03 sec, 617 directives.
 Default parameters read. Elapsed time= 0.17 sec

 Checking input...
 Passed
1


                                         ***  PROGRAM SYSTEM MOLPRO  ***
                                       Copyright, TTI GmbH Stuttgart, 2015
                                    Version 2019.2 linked May  2 2019 15:37:00


 **********************************************************************************************************************************
 LABEL *                                                                                 
  64 bit mpp version                                                                     DATE: 11-Jun-19          TIME: 15:29:06  
 **********************************************************************************************************************************

 SHA1:             8138d7467d1acbebe89db460979ba3ffe8b2d70c
 **********************************************************************************************************************************

 THRESHOLDS:

 ZERO    =  1.00D-12  ONEINT  =  1.00D-12  TWOINT  =  1.00D-11  PREFAC  =  1.00D-14  XXXXXX  =  1.00D-09  EORDER  =  1.00D-04
 ENERGY  =  0.00D+00  ETEST   =  0.00D+00  EDENS   =  0.00D+00  THRDEDEF=  1.00D-06  GRADIENT=  1.00D-02  STEP    =  1.00D-03
 ORBITAL =  1.00D-07  CIVEC   =  1.00D-05  COEFF   =  1.00D-04  PRINTCI =  5.00D-02  PUNCHCI =  9.90D+01  OPTGRAD =  3.00D-04
 OPTENERG=  1.00D-06  OPTSTEP =  3.00D-04  THRGRAD =  1.00D-10  COMPRESS=  1.00D-11  VARMIN  =  1.00D-07  VARMAX  =  1.00D-03
 THRDOUB =  0.00D+00  THRDIV  =  1.00D-05  THRRED  =  1.00D-07  THRPSP  =  1.00D+00  THRDC   =  1.00D-10  THRCS   =  1.00D-10
 THRNRM  =  1.00D-08  THREQ   =  0.00D+00  THRDE   =  1.00D+00  THRREF  =  1.00D-05  SPARFAC =  1.00D+00  THRDLP  =  1.00D-07
 THRDIA  =  1.00D-10  THRDLS  =  1.00D-07  THRGPS  =  0.00D+00  THRKEX  =  0.00D+00  THRDIS  =  2.00D-01  THRVAR  =  1.00D-10
 THRLOC  =  1.00D-06  THRGAP  =  1.00D-06  THRLOCT = -1.00D+00  THRGAPT = -1.00D+00  THRORB  =  1.00D-06  THRMLTP =  0.00D+00
 THRCPQCI=  1.00D-10  KEXTA   =  0.00D+00  THRCOARS=  0.00D+00  SYMTOL  =  1.00D-06  GRADTOL =  1.00D-06  THROVL  =  1.00D-08
 THRORTH =  1.00D-08  GRID    =  1.00D-06  GRIDMAX =  1.00D-03  DTMAX   =  0.00D+00  THROCCDE=  1.00D-01  THROCCDE=  1.00D-01
 THRPRINT=  2.50D-01


 Variable memory set to  800000000 words,  buffer space 


 Use libxcgrid:  T
 Grid name: NEESE


 **********************************************************************************************************************************
 PROGRAMS   *        TOTAL      GRID
 CPU TIMES  *         0.24      0.00
 REAL TIME  *         0.28 SEC
 DISK USED  *         0.03 MB (local),        0.13 MB (total)
 **********************************************************************************************************************************
 ZSYMEL=NOSYM


Geometry recognized as XYZ

 SETTING BASIS          =    USERDEF
 SETTING CHARGE         =        -1.00000000                                  


 Recomputing integrals since basis changed


 Using spherical harmonics

 Library entry I    ECP ECP46MDF                 selected for group  4
 Library entry Br   ECP ECP28MDF                 selected for group  2
 Library entry C      S def2-TZVPP           selected for orbital group  1
 Library entry C      P def2-TZVPP           selected for orbital group  1
 Library entry C      D def2-TZVPP           selected for orbital group  1
 Library entry C      F def2-TZVPP           selected for orbital group  1
 Library entry BR     S def2-TZVPP           selected for orbital group  2
 Library entry BR     P def2-TZVPP           selected for orbital group  2
 Library entry BR     D def2-TZVPP           selected for orbital group  2
 Library entry BR     F def2-TZVPP           selected for orbital group  2
 Library entry H      S def2-TZVPP           selected for orbital group  3
 Library entry H      P def2-TZVPP           selected for orbital group  3
 Library entry H      D def2-TZVPP           selected for orbital group  3
 Library entry I      S def2-TZVPP           selected for orbital group  4
 Library entry I      P def2-TZVPP           selected for orbital group  4
 Library entry I      D def2-TZVPP           selected for orbital group  4
 Library entry I      F def2-TZVPP           selected for orbital group  4


 PROGRAM * SEWARD (Integral evaluation for generally contracted gaussian basis sets)     Author: Roland Lindh, 1990

 Geometry written to block  1 of record 700


 Point group  C1  



 ATOMIC COORDINATES

 NR  ATOM    CHARGE       X              Y              Z

   1  C       6.00   -9.067485798    3.287728730    0.000022400
   2  BR      7.00   -3.044933937    3.280020430    0.000616688
   3  H       1.00   -8.403815949    1.366796964   -0.268208208
   4  H       1.00   -8.399179928    4.478792722   -1.528750917
   5  H       1.00   -8.399486027    4.014518043    1.796637732
   6  I       7.00  -13.109605405    3.293626227    0.000465260

 Bond lengths in Bohr (Angstrom)

 1-3  2.049971751  1-4  2.049979030  1-5  2.049944646  1-6  4.042123933
     ( 1.084798334)     ( 1.084802185)     ( 1.084783990)     ( 2.138999869)

 Bond angles

  3-1-4  109.95719337   3-1-5  109.96238996   3-1-6  108.97326997   4-1-5  109.96011464

  4-1-6  108.98010696   5-1-6  108.98064287

 NUCLEAR CHARGE:                   23
 NUMBER OF PRIMITIVE AOS:         325
 NUMBER OF SYMMETRY AOS:          292
 NUMBER OF CONTRACTIONS:          171   (  171A   )
 NUMBER OF CORE ORBITALS:           1   (    1A   )
 NUMBER OF VALENCE ORBITALS:       15   (   15A   )


 LX: A            LY: A            LZ: A  


 NUCLEAR REPULSION ENERGY   39.71778619



 Eigenvalues of metric

         1 0.538E-03 0.703E-03 0.703E-03 0.211E-02 0.400E-02 0.629E-02 0.139E-01 0.139E-01


 Contracted 2-electron integrals neglected if value below      1.0D-11
 AO integral compression algorithm  1   Integral accuracy      1.0D-11

     277.610 MB (compressed) written to integral file ( 26.7%)

     Node minimum: 44.827 MB, node maximum: 133.169 MB


 NUMBER OF SORTED TWO-ELECTRON INTEGRALS:   27033304.     BUFFER LENGTH:  32768
 NUMBER OF SEGMENTS:   2  SEGMENT LENGTH:   15989512      RECORD LENGTH: 524288

 Memory used in sort:      16.55 MW

 SORT1 READ   129978501. AND WROTE    16242302. INTEGRALS IN     47 RECORDS. CPU TIME:     2.26 SEC, REAL TIME:     2.62 SEC
 SORT2 READ    64890873. AND WROTE   108140571. INTEGRALS IN    724 RECORDS. CPU TIME:     0.84 SEC, REAL TIME:     0.98 SEC

 Node minimum:    27029628.  Node maximum:    27040658. integrals

 OPERATOR DM      FOR CENTER  0  COORDINATES:    0.000000    0.000000    0.000000


 **********************************************************************************************************************************
 DATASETS  * FILE   NREC   LENGTH (MB)   RECORD NAMES
              1      19       31.63       500      610      700      900      950      970     1000      129      960     1100   
                                          VAR    BASINP    GEOM    SYMINP    ZMAT    AOBASIS   BASIS     P2S    ABASIS      S 
                                         1400     1410     1420     1200     1210     1080     1700     1600     1650   
                                           T        V       ECP      H0       H01     AOSYM    OPER      SMH    MOLCAS    

 PROGRAMS   *        TOTAL       INT      GRID
 CPU TIMES  *         9.92      9.68      0.00
 REAL TIME  *        16.67 SEC
 DISK USED  *        32.04 MB (local),        1.21 GB (total)
 GA USED    *         0.00 MB       (max)       0.00 MB       (current)
 **********************************************************************************************************************************


 PROGRAM * RHF-SCF (CLOSED SHELL)       Authors: W. Meyer, H.-J. Werner


 NUMBER OF ELECTRONS:      12+   12-    SPACE SYMMETRY=1    SPIN SYMMETRY: Singlet 
 CONVERGENCE THRESHOLDS:    1.00E-07 (Density)    1.00E-07 (Energy)
 MAX. NUMBER OF ITERATIONS:       60
 INTERPOLATION TYPE:            DIIS
 INTERPOLATION STEPS:              2 (START)      1 (STEP)
 LEVEL SHIFTS:                  0.00 (CLOSED)  0.00 (OPEN) 



 Orbital guess generated from atomic densities. Full valence occupancy:   12

 Molecular orbital dump at record        2100.2

 Initial occupancy:  12

 ITERATION    DDIFF          GRAD             ENERGY        2-EL.EN.            DIPOLE MOMENTS         DIIS   ORB.
    1      0.000D+00      0.000D+00       -63.81043245    145.924207    4.05777   -3.28150   -0.00073    0    start
    2      0.000D+00      0.365D-02       -63.85218370    144.560367    4.79554   -3.28247   -0.00067    1    diag
    3      0.491D-02      0.104D-02       -63.85512807    144.825295    4.82573   -3.28252   -0.00069    2    diag
    4      0.936D-03      0.264D-03       -63.85549396    144.730256    4.89784   -3.28262   -0.00069    3    diag
    5      0.357D-03      0.693D-04       -63.85551013    144.761464    4.90356   -3.28263   -0.00069    4    diag
    6      0.660D-04      0.231D-04       -63.85551269    144.747324    4.91131   -3.28264   -0.00069    5    diag
    7      0.313D-04      0.677D-05       -63.85551296    144.748325    4.91250   -3.28264   -0.00069    6    diag
    8      0.916D-05      0.220D-05       -63.85551300    144.747998    4.91361   -3.28264   -0.00069    7    diag
    9      0.369D-05      0.588D-06       -63.85551301    144.748017    4.91380   -3.28264   -0.00069    8    diag
   10      0.104D-05      0.833D-07       -63.85551301    144.748027    4.91382   -3.28264   -0.00069    9    orth
   11      0.178D-06      0.133D-07       -63.85551301    144.748025    4.91382   -3.28264   -0.00069    9    diag
   12      0.232D-07      0.357D-08       -63.85551301    144.748026    4.91382   -3.28264   -0.00069    0    orth

 Final occupancy:  12

 !RHF STATE  1.1 Energy               -63.855513005711
 Nuclear energy                        39.71778619
 One-electron energy                 -175.94731205
 Two-electron energy                   72.37401285
 Virial quotient                       -1.34946983
 !RHF STATE  1.1 Dipole moment          4.91382403    -3.28264436    -0.00069279
 Dipole moment /Debye                  12.48887687    -8.34310326    -0.00176078

 Orbital energies:

         1.1          2.1          3.1          4.1          5.1          6.1          7.1          8.1          9.1         10.1
    -11.134425    -0.863547    -0.737667    -0.713321    -0.455673    -0.455660    -0.334172    -0.238127    -0.238126    -0.143354

        11.1         12.1         13.1         14.1
     -0.143353    -0.142217     0.219825     0.293847


 HOMO     12.1    -0.142217 =      -3.8699eV
 LUMO     13.1     0.219825 =       5.9817eV
 LUMO-HOMO         0.362043 =       9.8517eV


 **********************************************************************************************************************************
 DATASETS  * FILE   NREC   LENGTH (MB)   RECORD NAMES
              1      19       31.63       500      610      700      900      950      970     1000      129      960     1100   
                                          VAR    BASINP    GEOM    SYMINP    ZMAT    AOBASIS   BASIS     P2S    ABASIS      S 
                                         1400     1410     1420     1200     1210     1080     1700     1600     1650   
                                           T        V       ECP      H0       H01     AOSYM    OPER      SMH    MOLCAS    

              2       4        3.45       700     1000      520     2100   
                                         GEOM     BASIS   MCVARS     RHF  

 PROGRAMS   *        TOTAL    HF-SCF       INT      GRID
 CPU TIMES  *        14.43      4.51      9.68      0.00
 REAL TIME  *        22.23 SEC
 DISK USED  *        37.26 MB (local),        1.23 GB (total)
 SF USED    *         0.12 MB
 GA USED    *         0.00 MB       (max)       0.00 MB       (current)
 **********************************************************************************************************************************


 PROGRAM * CCSD (Closed-shell coupled cluster)     Authors: C. Hampel, H.-J. Werner, 1991, M. Deegan, P.J. Knowles, 1992


 Convergence thresholds:  THRVAR = 1.00D-08  THRDEN = 1.00D-06

 Number of closed-shell orbitals:  12 (  12 )
 Number of external orbitals:     159 ( 159 )

 Molecular orbitals read from record     2100.2  Type=RHF/CANONICAL (state 1.1)

 Number of N-1 electron functions:              12
 Number of N-2 electron functions:              78
 Number of singly external CSFs:              1908
 Number of doubly external CSFs:           1821186
 Total number of CSFs:                     1823095

 Length of J-op  integral file:               0.00 MB
 Length of K-op  integral file:               2.01 MB
 Length of 3-ext integral record:             0.00 MB

 Integral transformation finished. Total CPU:   7.57 sec, npass=  1  Memory used:  37.12 MW

 Reference energy:                    -63.85551301

 MP2 singlet pair energy:              -0.35477344
 MP2 triplet pair energy:              -0.18342924
 MP2 correlation energy:               -0.53820268
 MP2 total energy:                    -64.39371569

 SCS-MP2 correlation energy:           -0.53986188   (PS=  1.200000  PT=  0.333333)
 SCS-MP2 total energy:                -64.39537488

 ITER.      SQ.NORM     CORR.ENERGY   TOTAL ENERGY   ENERGY CHANGE        DEN1      VAR(S)    VAR(P)  DIIS     TIME  TIME/IT
   1      1.23595983    -0.57701392   -64.43252692    -0.03881124    -0.02498757  0.18D-02  0.32D-02  1  1    12.92     5.15
   2      1.25113789    -0.57946178   -64.43497479    -0.00244787    -0.01342662  0.38D-04  0.32D-03  2  2    18.37     5.50
   3      1.25535570    -0.57948250   -64.43499550    -0.00002071    -0.00223651  0.32D-04  0.20D-04  3  3    23.62     5.51
   4      1.25674865    -0.57946262   -64.43497562     0.00001988    -0.00052091  0.32D-05  0.29D-05  4  4    28.92     5.52
   5      1.25716478    -0.57946874   -64.43498175    -0.00000613    -0.00006838  0.13D-05  0.34D-06  5  5    34.17     5.53
   6      1.25728830    -0.57946714   -64.43498015     0.00000160    -0.00001076  0.30D-06  0.73D-07  6  6    39.49     5.55
   7      1.25734719    -0.57946396   -64.43497696     0.00000319    -0.00000859  0.61D-07  0.15D-07  6  1    44.86     5.57
   8      1.25737098    -0.57946361   -64.43497661     0.00000035    -0.00000280  0.12D-07  0.27D-08  6  2    50.13     5.58
   9      1.25738014    -0.57946373   -64.43497674    -0.00000013     0.00000084  0.11D-08  0.59D-09  6  4    55.41     5.59

 Norm of t1 vector:      0.06331804      S-energy:     0.00000004      T1 diagnostic:  0.00913917
                                                                       D1 diagnostic:  0.03221141

 Doubles amplitudes (print threshold =  0.500E-01):

         I         J         SYM. A    SYM. B    A         B      T(IJ, AB)

         7         7         1         1         1         1     -0.05980325


 RESULTS
 =======

  Reference energy                    -63.855513005711

  Correlated core orbitals:             1.1
  Orbital energies:                   -11.1344

  CCSD core-core energy                -0.014126818143
  CCSD core-valence energy             -0.005488950508
  CCSD valence correlation energy      -0.559847963541

  CCSD singlet pair energy             -0.407020026974
  CCSD triplet pair energy             -0.172443745176
  CCSD correlation energy              -0.579463732191

 !CCSD total energy                   -64.434976737903

 Timing summary (sec):

 STEP                 CPU(USER)    SYS     CPU(TOT)    WALL
 Transformation          7.71      1.25      8.96      8.95
 CCSD iterations        47.72      3.16     50.88     51.01

 Program statistics:

 Available memory in ccsd:               799999412
 Min. memory needed in ccsd:               4799371
 Max. memory used in ccsd:                 6422305
 Max. memory used in cckext:               4846658 ( 9 integral passes)



 **********************************************************************************************************************************
 DATASETS  * FILE   NREC   LENGTH (MB)   RECORD NAMES
              1      20      253.68       500      610      700      900      950      970     1000      129      960     1100   
                                          VAR    BASINP    GEOM    SYMINP    ZMAT    AOBASIS   BASIS     P2S    ABASIS      S 
                                         1400     1410     1420     1200     1210     1080     1700     1600     1650     1380   
                                           T        V       ECP      H0       H01     AOSYM    OPER      SMH    MOLCAS    JKOP   

              2       4        3.45       700     1000      520     2100   
                                         GEOM     BASIS   MCVARS     RHF  

 PROGRAMS   *        TOTAL      CCSD    HF-SCF       INT      GRID
 CPU TIMES  *        69.92     55.48      4.51      9.68      0.00
 REAL TIME  *        82.39 SEC
 DISK USED  *       446.68 MB (local),        2.30 GB (total)
 SF USED    *       373.32 MB
 GA USED    *         0.00 MB       (max)       0.00 MB       (current)
 **********************************************************************************************************************************
 Molecular orbitals read from record     2100.2  Type=RHF/CANONICAL (state 1.1)
 Occupation numbers read from record     2100.2  Type=RHF/RHF (state 1.1)
 Orbital energies read from record       2100.2  Type=RHF/CANONICAL (state 1.1)
 Redundancy group numbers read from rec  2100.2  Type=RHF/RHF (state 1.1)

 CCSD/USERDEF energy=    -64.434976737903

            CCSD          HF-SCF
    -64.43497674    -63.85551301
 **********************************************************************************************************************************
 Molpro calculation terminated
