
 Primary working directories    : /tmp/sjlee/molpro.meciD2WTKx
 Secondary working directories  : /tmp/sjlee/molpro.meciD2WTKx
 Wavefunction directory         : /home/sjlee/wfu/
 Main file repository           : /tmp/sjlee/molpro.meciD2WTKx/

 id        : sjlee

 Nodes             nprocs
 tachus.caltech.edu    4

 Using customized tuning parameters: mindgm=1; mindgv=20; mindgc=4; mindgr=1; noblas=0; minvec=7
 default implementation of scratch files=sf  


 Variables initialized (934), CPU time= 0.03 sec
 memory,800,M
 
 {gthresh,orbital=1.0d-07}
 {grid,name=NEESE,neese_index=7}
 {symmetry,nosym}
 
 geometry = prod.xyz
 Including file /home/sjlee/projects/wccr10/scripts_wccr10/scripts_wccr10/even_handed/sn2_test/MP2_def2-svp/image3/prod.xyz
 
 basis={
 default,def2-svp
 ecp,I,ecp46mdf
 ecp,Br,ecp28mdf
 }
 
 set,charge=-1
 
 {hf}
 {mp2}
 Commands  initialized (761), CPU time= 0.02 sec, 617 directives.
 Default parameters read. Elapsed time= 0.15 sec

 Checking input...
 Passed
1


                                         ***  PROGRAM SYSTEM MOLPRO  ***
                                       Copyright, TTI GmbH Stuttgart, 2015
                                    Version 2019.2 linked May  2 2019 15:37:00


 **********************************************************************************************************************************
 LABEL *                                                                                 
  64 bit mpp version                                                                     DATE: 11-Jun-19          TIME: 11:25:28  
 **********************************************************************************************************************************

 SHA1:             8138d7467d1acbebe89db460979ba3ffe8b2d70c
 **********************************************************************************************************************************

 THRESHOLDS:

 ZERO    =  1.00D-12  ONEINT  =  1.00D-12  TWOINT  =  1.00D-11  PREFAC  =  1.00D-14  XXXXXX  =  1.00D-09  EORDER  =  1.00D-04
 ENERGY  =  0.00D+00  ETEST   =  0.00D+00  EDENS   =  0.00D+00  THRDEDEF=  1.00D-06  GRADIENT=  1.00D-02  STEP    =  1.00D-03
 ORBITAL =  1.00D-07  CIVEC   =  1.00D-05  COEFF   =  1.00D-04  PRINTCI =  5.00D-02  PUNCHCI =  9.90D+01  OPTGRAD =  3.00D-04
 OPTENERG=  1.00D-06  OPTSTEP =  3.00D-04  THRGRAD =  1.00D-10  COMPRESS=  1.00D-11  VARMIN  =  1.00D-07  VARMAX  =  1.00D-03
 THRDOUB =  0.00D+00  THRDIV  =  1.00D-05  THRRED  =  1.00D-07  THRPSP  =  1.00D+00  THRDC   =  1.00D-10  THRCS   =  1.00D-10
 THRNRM  =  1.00D-08  THREQ   =  0.00D+00  THRDE   =  1.00D+00  THRREF  =  1.00D-05  SPARFAC =  1.00D+00  THRDLP  =  1.00D-07
 THRDIA  =  1.00D-10  THRDLS  =  1.00D-07  THRGPS  =  0.00D+00  THRKEX  =  0.00D+00  THRDIS  =  2.00D-01  THRVAR  =  1.00D-10
 THRLOC  =  1.00D-06  THRGAP  =  1.00D-06  THRLOCT = -1.00D+00  THRGAPT = -1.00D+00  THRORB  =  1.00D-06  THRMLTP =  0.00D+00
 THRCPQCI=  1.00D-10  KEXTA   =  0.00D+00  THRCOARS=  0.00D+00  SYMTOL  =  1.00D-06  GRADTOL =  1.00D-06  THROVL  =  1.00D-08
 THRORTH =  1.00D-08  GRID    =  1.00D-06  GRIDMAX =  1.00D-03  DTMAX   =  0.00D+00  THROCCDE=  1.00D-01  THROCCDE=  1.00D-01
 THRPRINT=  2.50D-01


 Variable memory set to  800000000 words,  buffer space 


 Use libxcgrid:  T
 Grid name: NEESE


 **********************************************************************************************************************************
 PROGRAMS   *        TOTAL      GRID
 CPU TIMES  *         0.23      0.00
 REAL TIME  *         0.26 SEC
 DISK USED  *         0.03 MB (local),        0.13 MB (total)
 **********************************************************************************************************************************
 ZSYMEL=NOSYM


Geometry recognized as XYZ

 SETTING BASIS          =    USERDEF
 SETTING CHARGE         =        -1.00000000                                  


 Recomputing integrals since basis changed


 Using spherical harmonics

 Library entry I    ECP ECP46MDF                 selected for group  4
 Library entry Br   ECP ECP28MDF                 selected for group  2
 Library entry C      S def2-SVP             selected for orbital group  1
 Library entry C      P def2-SVP             selected for orbital group  1
 Library entry C      D def2-SVP             selected for orbital group  1
 Library entry BR     S def2-SVP             selected for orbital group  2
 Library entry BR     P def2-SVP             selected for orbital group  2
 Library entry BR     D def2-SVP             selected for orbital group  2
 Library entry H      S def2-SVP             selected for orbital group  3
 Library entry H      P def2-SVP             selected for orbital group  3
 Library entry I      S def2-SVP             selected for orbital group  4
 Library entry I      P def2-SVP             selected for orbital group  4
 Library entry I      D def2-SVP             selected for orbital group  4


 PROGRAM * SEWARD (Integral evaluation for generally contracted gaussian basis sets)     Author: Roland Lindh, 1990

 Geometry written to block  1 of record 700


 Point group  C1  



 ATOMIC COORDINATES

 NR  ATOM    CHARGE       X              Y              Z

   1  C       6.00   -9.067485798    3.287728730    0.000022400
   2  BR      7.00   -3.044933937    3.280020430    0.000616688
   3  H       1.00   -8.403815949    1.366796964   -0.268208208
   4  H       1.00   -8.399179928    4.478792722   -1.528750917
   5  H       1.00   -8.399486027    4.014518043    1.796637732
   6  I       7.00  -13.109605405    3.293626227    0.000465260

 Bond lengths in Bohr (Angstrom)

 1-3  2.049971751  1-4  2.049979030  1-5  2.049944646  1-6  4.042123933
     ( 1.084798334)     ( 1.084802185)     ( 1.084783990)     ( 2.138999869)

 Bond angles

  3-1-4  109.95719337   3-1-5  109.96238996   3-1-6  108.97326997   4-1-5  109.96011464

  4-1-6  108.98010696   5-1-6  108.98064287

 NUCLEAR CHARGE:                   23
 NUMBER OF PRIMITIVE AOS:         193
 NUMBER OF SYMMETRY AOS:          180
 NUMBER OF CONTRACTIONS:           87   (   87A   )
 NUMBER OF CORE ORBITALS:           1   (    1A   )
 NUMBER OF VALENCE ORBITALS:       15   (   15A   )


 LX: A            LY: A            LZ: A  


 NUCLEAR REPULSION ENERGY   39.71778619



 Eigenvalues of metric

         1 0.126E-01 0.308E-01 0.496E-01 0.496E-01 0.710E-01 0.878E-01 0.102E+00 0.125E+00


 Contracted 2-electron integrals neglected if value below      1.0D-11
 AO integral compression algorithm  1   Integral accuracy      1.0D-11

     18.350 MB (compressed) written to integral file ( 24.0%)

     Node minimum: 2.621 MB, node maximum: 9.175 MB


 NUMBER OF SORTED TWO-ELECTRON INTEGRALS:    1833612.     BUFFER LENGTH:  32768
 NUMBER OF SEGMENTS:   1  SEGMENT LENGTH:    1833612      RECORD LENGTH: 524288

 Memory used in sort:       2.39 MW

 SORT1 READ     9633848. AND WROTE      942030. INTEGRALS IN      3 RECORDS. CPU TIME:     0.15 SEC, REAL TIME:     0.17 SEC
 SORT2 READ     3747975. AND WROTE     7328706. INTEGRALS IN     44 RECORDS. CPU TIME:     0.08 SEC, REAL TIME:     0.09 SEC

 Node minimum:     1830741.  Node maximum:     1833612. integrals

 OPERATOR DM      FOR CENTER  0  COORDINATES:    0.000000    0.000000    0.000000


 **********************************************************************************************************************************
 DATASETS  * FILE   NREC   LENGTH (MB)   RECORD NAMES
              1      19       30.46       500      610      700      900      950      970     1000      129      960     1100   
                                          VAR    BASINP    GEOM    SYMINP    ZMAT    AOBASIS   BASIS     P2S    ABASIS      S 
                                         1400     1410     1420     1200     1210     1080     1700     1600     1650   
                                           T        V       ECP      H0       H01     AOSYM    OPER      SMH    MOLCAS    

 PROGRAMS   *        TOTAL       INT      GRID
 CPU TIMES  *         2.37      2.13      0.00
 REAL TIME  *         8.65 SEC
 DISK USED  *        30.84 MB (local),      188.43 MB (total)
 GA USED    *         0.00 MB       (max)       0.00 MB       (current)
 **********************************************************************************************************************************


 PROGRAM * RHF-SCF (CLOSED SHELL)       Authors: W. Meyer, H.-J. Werner


 NUMBER OF ELECTRONS:      12+   12-    SPACE SYMMETRY=1    SPIN SYMMETRY: Singlet 
 CONVERGENCE THRESHOLDS:    1.00E-07 (Density)    1.00E-07 (Energy)
 MAX. NUMBER OF ITERATIONS:       60
 INTERPOLATION TYPE:            DIIS
 INTERPOLATION STEPS:              2 (START)      1 (STEP)
 LEVEL SHIFTS:                  0.00 (CLOSED)  0.00 (OPEN) 



 Orbital guess generated from atomic densities. Full valence occupancy:   12

 Molecular orbital dump at record        2100.2

 Initial occupancy:  12

 ITERATION    DDIFF          GRAD             ENERGY        2-EL.EN.            DIPOLE MOMENTS         DIIS   ORB.
    1      0.000D+00      0.000D+00       -63.59233057    145.359003    4.03460   -3.28147   -0.00073    0    start
    2      0.000D+00      0.557D-02       -63.63023792    144.325788    4.71036   -3.28236   -0.00069    1    diag
    3      0.888D-02      0.134D-02       -63.63276155    144.486358    4.77589   -3.28246   -0.00070    2    diag
    4      0.177D-02      0.358D-03       -63.63307510    144.435243    4.85347   -3.28257   -0.00070    3    diag
    5      0.598D-03      0.807D-04       -63.63309226    144.443165    4.86959   -3.28259   -0.00071    4    diag
    6      0.145D-03      0.243D-04       -63.63309391    144.432842    4.87633   -3.28260   -0.00071    5    diag
    7      0.405D-04      0.122D-04       -63.63309427    144.434960    4.87873   -3.28260   -0.00071    6    diag
    8      0.226D-04      0.174D-05       -63.63309428    144.434602    4.87935   -3.28261   -0.00071    7    diag
    9      0.528D-05      0.397D-06       -63.63309428    144.434632    4.87943   -3.28261   -0.00071    8    diag
   10      0.118D-05      0.444D-07       -63.63309428    144.434635    4.87943   -3.28261   -0.00071    9    orth
   11      0.140D-06      0.839D-08       -63.63309428    144.434634    4.87943   -3.28261   -0.00071    9    diag
   12      0.209D-07      0.174D-08       -63.63309428    144.434635    4.87943   -3.28261   -0.00071    0    orth

 Final occupancy:  12

 !RHF STATE  1.1 Energy               -63.633094281332
 Nuclear energy                        39.71778619
 One-electron energy                 -175.56819776
 Two-electron energy                   72.21731729
 Virial quotient                       -1.35185189
 !RHF STATE  1.1 Dipole moment          4.87943391    -3.28260538    -0.00070601
 Dipole moment /Debye                  12.40147165    -8.34300419    -0.00179438

 Orbital energies:

         1.1          2.1          3.1          4.1          5.1          6.1          7.1          8.1          9.1         10.1
    -11.145841    -0.856661    -0.702356    -0.679851    -0.461300    -0.461287    -0.342512    -0.247826    -0.247825    -0.141021

        11.1         12.1         13.1         14.1
     -0.141021    -0.139281     0.233229     0.349356


 HOMO     12.1    -0.139281 =      -3.7900eV
 LUMO     13.1     0.233229 =       6.3465eV
 LUMO-HOMO         0.372510 =      10.1365eV


 **********************************************************************************************************************************
 DATASETS  * FILE   NREC   LENGTH (MB)   RECORD NAMES
              1      19       30.46       500      610      700      900      950      970     1000      129      960     1100   
                                          VAR    BASINP    GEOM    SYMINP    ZMAT    AOBASIS   BASIS     P2S    ABASIS      S 
                                         1400     1410     1420     1200     1210     1080     1700     1600     1650   
                                           T        V       ECP      H0       H01     AOSYM    OPER      SMH    MOLCAS    

              2       4        3.00       700     1000      520     2100   
                                         GEOM     BASIS   MCVARS     RHF  

 PROGRAMS   *        TOTAL    HF-SCF       INT      GRID
 CPU TIMES  *         3.04      0.67      2.13      0.00
 REAL TIME  *         9.38 SEC
 DISK USED  *        34.06 MB (local),      201.32 MB (total)
 SF USED    *         0.03 MB
 GA USED    *         0.00 MB       (max)       0.00 MB       (current)
 **********************************************************************************************************************************


 PROGRAM * MP2 (Closed-shell)     Authors: C. Hampel, H.-J. Werner, 1991, M. Deegan, P.J. Knowles, 1992


 Convergence thresholds:  THRVAR = 1.00D-08  THRDEN = 1.00D-06

 Number of core orbitals:           1 (   1 )
 Number of closed-shell orbitals:  11 (  11 )
 Number of external orbitals:      75 (  75 )

 Molecular orbitals read from record     2100.2  Type=RHF/CANONICAL (state 1.1)

 Number of N-1 electron functions:              11
 Number of N-2 electron functions:              66
 Number of singly external CSFs:               825
 Number of doubly external CSFs:            340725
 Total number of CSFs:                      341551

 Length of J-op  integral file:               0.00 MB
 Length of K-op  integral file:               0.52 MB

 Integral transformation finished. Total CPU:   0.09 sec, npass=  1  Memory used:   1.02 MW

 Memory needed for MP2:                      0.04 MW

 SCS-MP2 correlation energy:           -0.387311502219   (PS=  1.200000  PT=  0.333333)
 SCS-MP2 total energy:                -64.020405783551


  Reference energy                    -63.633094281332
  MP2 singlet pair energy              -0.248383714620
  MP2 triplet pair energy              -0.143439178942
  MP2 correlation energy               -0.391822893562

 !MP2 total energy                    -64.024917174894


 **********************************************************************************************************************************
 DATASETS  * FILE   NREC   LENGTH (MB)   RECORD NAMES
              1      20       36.60       500      610      700      900      950      970     1000      129      960     1100   
                                          VAR    BASINP    GEOM    SYMINP    ZMAT    AOBASIS   BASIS     P2S    ABASIS      S 
                                         1400     1410     1420     1200     1210     1080     1700     1600     1650     1380   
                                           T        V       ECP      H0       H01     AOSYM    OPER      SMH    MOLCAS    JKOP   

              2       4        3.00       700     1000      520     2100   
                                         GEOM     BASIS   MCVARS     RHF  

 PROGRAMS   *        TOTAL       MP2    HF-SCF       INT      GRID
 CPU TIMES  *         3.21      0.17      0.67      2.13      0.00
 REAL TIME  *         9.81 SEC
 DISK USED  *        39.65 MB (local),      223.68 MB (total)
 SF USED    *        14.23 MB
 GA USED    *         0.00 MB       (max)       0.00 MB       (current)
 **********************************************************************************************************************************
 Molecular orbitals read from record     2100.2  Type=RHF/CANONICAL (state 1.1)
 Occupation numbers read from record     2100.2  Type=RHF/RHF (state 1.1)
 Orbital energies read from record       2100.2  Type=RHF/CANONICAL (state 1.1)
 Redundancy group numbers read from rec  2100.2  Type=RHF/RHF (state 1.1)

 MP2/USERDEF energy=    -64.024917174894

             MP2          HF-SCF
    -64.02491717    -63.63309428
 **********************************************************************************************************************************
 Molpro calculation terminated
