
 Primary working directories    : /tmp/sjlee/molpro.ZPFBf1IZ6i
 Secondary working directories  : /tmp/sjlee/molpro.ZPFBf1IZ6i
 Wavefunction directory         : /home/sjlee/wfu/
 Main file repository           : /tmp/sjlee/molpro.ZPFBf1IZ6i/

 id        : sjlee

 Nodes             nprocs
 tachus.caltech.edu    4

 Using customized tuning parameters: mindgm=1; mindgv=20; mindgc=4; mindgr=1; noblas=0; minvec=7
 default implementation of scratch files=sf  


 Variables initialized (934), CPU time= 0.03 sec
                                                                                 !Title
 memory,800,M
 
 {gthresh,orbital=1.0d-07}
 {grid,name=NEESE,neese_index=7}
 {symmetry,nosym}
 
 geometry = ts.xyz
 Including file /home/sjlee/projects/wccr10/scripts_wccr10/scripts_wccr10/even_handed/sn2_test/MP2_def2-tzvpp/image2/ts.xyz
 
 basis={
 default,def2-tzvpp
 ecp,I,ecp46mdf
 ecp,Br,ecp28mdf
 }
 
 set,charge=-1
 
 {hf}
 {mp2}
 Commands  initialized (761), CPU time= 0.02 sec, 617 directives.
 Default parameters read. Elapsed time= 0.15 sec

 Checking input...
 Passed
1


                                         ***  PROGRAM SYSTEM MOLPRO  ***
                                       Copyright, TTI GmbH Stuttgart, 2015
                                    Version 2019.2 linked May  2 2019 15:37:00


 **********************************************************************************************************************************
 LABEL *                                                                                 
  64 bit mpp version                                                                     DATE: 11-Jun-19          TIME: 11:28:00  
 **********************************************************************************************************************************

 SHA1:             8138d7467d1acbebe89db460979ba3ffe8b2d70c
 **********************************************************************************************************************************

 THRESHOLDS:

 ZERO    =  1.00D-12  ONEINT  =  1.00D-12  TWOINT  =  1.00D-11  PREFAC  =  1.00D-14  XXXXXX  =  1.00D-09  EORDER  =  1.00D-04
 ENERGY  =  0.00D+00  ETEST   =  0.00D+00  EDENS   =  0.00D+00  THRDEDEF=  1.00D-06  GRADIENT=  1.00D-02  STEP    =  1.00D-03
 ORBITAL =  1.00D-07  CIVEC   =  1.00D-05  COEFF   =  1.00D-04  PRINTCI =  5.00D-02  PUNCHCI =  9.90D+01  OPTGRAD =  3.00D-04
 OPTENERG=  1.00D-06  OPTSTEP =  3.00D-04  THRGRAD =  1.00D-10  COMPRESS=  1.00D-11  VARMIN  =  1.00D-07  VARMAX  =  1.00D-03
 THRDOUB =  0.00D+00  THRDIV  =  1.00D-05  THRRED  =  1.00D-07  THRPSP  =  1.00D+00  THRDC   =  1.00D-10  THRCS   =  1.00D-10
 THRNRM  =  1.00D-08  THREQ   =  0.00D+00  THRDE   =  1.00D+00  THRREF  =  1.00D-05  SPARFAC =  1.00D+00  THRDLP  =  1.00D-07
 THRDIA  =  1.00D-10  THRDLS  =  1.00D-07  THRGPS  =  0.00D+00  THRKEX  =  0.00D+00  THRDIS  =  2.00D-01  THRVAR  =  1.00D-10
 THRLOC  =  1.00D-06  THRGAP  =  1.00D-06  THRLOCT = -1.00D+00  THRGAPT = -1.00D+00  THRORB  =  1.00D-06  THRMLTP =  0.00D+00
 THRCPQCI=  1.00D-10  KEXTA   =  0.00D+00  THRCOARS=  0.00D+00  SYMTOL  =  1.00D-06  GRADTOL =  1.00D-06  THROVL  =  1.00D-08
 THRORTH =  1.00D-08  GRID    =  1.00D-06  GRIDMAX =  1.00D-03  DTMAX   =  0.00D+00  THROCCDE=  1.00D-01  THROCCDE=  1.00D-01
 THRPRINT=  2.50D-01


 Variable memory set to  800000000 words,  buffer space 


 Use libxcgrid:  T
 Grid name: NEESE


 **********************************************************************************************************************************
 PROGRAMS   *        TOTAL      GRID
 CPU TIMES  *         0.22      0.00
 REAL TIME  *         0.25 SEC
 DISK USED  *         0.03 MB (local),        0.13 MB (total)
 **********************************************************************************************************************************
 ZSYMEL=NOSYM


Geometry recognized as XYZ

 SETTING BASIS          =    USERDEF
 SETTING CHARGE         =        -1.00000000                                  


 Recomputing integrals since basis changed


 Using spherical harmonics

 Library entry I    ECP ECP46MDF                 selected for group  4
 Library entry Br   ECP ECP28MDF                 selected for group  2
 Library entry C      S def2-TZVPP           selected for orbital group  1
 Library entry C      P def2-TZVPP           selected for orbital group  1
 Library entry C      D def2-TZVPP           selected for orbital group  1
 Library entry C      F def2-TZVPP           selected for orbital group  1
 Library entry BR     S def2-TZVPP           selected for orbital group  2
 Library entry BR     P def2-TZVPP           selected for orbital group  2
 Library entry BR     D def2-TZVPP           selected for orbital group  2
 Library entry BR     F def2-TZVPP           selected for orbital group  2
 Library entry H      S def2-TZVPP           selected for orbital group  3
 Library entry H      P def2-TZVPP           selected for orbital group  3
 Library entry H      D def2-TZVPP           selected for orbital group  3
 Library entry I      S def2-TZVPP           selected for orbital group  4
 Library entry I      P def2-TZVPP           selected for orbital group  4
 Library entry I      D def2-TZVPP           selected for orbital group  4
 Library entry I      F def2-TZVPP           selected for orbital group  4


 PROGRAM * SEWARD (Integral evaluation for generally contracted gaussian basis sets)     Author: Roland Lindh, 1990

 Geometry written to block  1 of record 700


 Point group  C1  



 ATOMIC COORDINATES

 NR  ATOM    CHARGE       X              Y              Z

   1  C       6.00   -8.536283348    3.286615273    0.000068929
   2  BR      7.00   -3.400685172    3.280582625    0.000436566
   3  H       1.00   -8.342073341    1.281477098   -0.279990714
   4  H       1.00   -8.338622332    4.531334326   -1.596282375
   5  H       1.00   -8.338661363    4.046535516    1.876283069
   6  I       7.00  -13.468181490    3.294938278    0.000267481

 Bond lengths in Bohr (Angstrom)

 1-2  5.135601733  1-3  2.033895285  1-4  2.033895986  1-5  2.033891031  1-6  4.931905169
     ( 2.717643401)     ( 1.076291034)     ( 1.076291405)     ( 1.076288783)     ( 2.609851822)

 Bond angles

  2-1-3   84.45457611   2-1-4   84.46761812   2-1-5   84.44555563   2-1-6  179.96992170

  3-1-4  119.07675658   3-1-5  119.08387751   3-1-6   95.57541559   4-1-5  119.07325995

  4-1-6   95.51936204   5-1-6   95.53746930

 NUCLEAR CHARGE:                   23
 NUMBER OF PRIMITIVE AOS:         325
 NUMBER OF SYMMETRY AOS:          292
 NUMBER OF CONTRACTIONS:          171   (  171A   )
 NUMBER OF CORE ORBITALS:           1   (    1A   )
 NUMBER OF VALENCE ORBITALS:       15   (   15A   )


 LX: A            LY: A            LZ: A  


 NUCLEAR REPULSION ENERGY   39.00993010



 Eigenvalues of metric

         1 0.548E-03 0.718E-03 0.718E-03 0.230E-02 0.502E-02 0.100E-01 0.146E-01 0.146E-01


 Contracted 2-electron integrals neglected if value below      1.0D-11
 AO integral compression algorithm  1   Integral accuracy      1.0D-11

     274.727 MB (compressed) written to integral file ( 26.4%)

     Node minimum: 41.157 MB, node maximum: 126.616 MB


 NUMBER OF SORTED TWO-ELECTRON INTEGRALS:   27033304.     BUFFER LENGTH:  32768
 NUMBER OF SEGMENTS:   2  SEGMENT LENGTH:   15989512      RECORD LENGTH: 524288

 Memory used in sort:      16.55 MW

 SORT1 READ   129978501. AND WROTE    16175370. INTEGRALS IN     47 RECORDS. CPU TIME:     2.26 SEC, REAL TIME:     2.60 SEC
 SORT2 READ    64672468. AND WROTE   108140571. INTEGRALS IN    800 RECORDS. CPU TIME:     0.80 SEC, REAL TIME:     0.96 SEC

 Node minimum:    27029628.  Node maximum:    27040658. integrals

 OPERATOR DM      FOR CENTER  0  COORDINATES:    0.000000    0.000000    0.000000


 **********************************************************************************************************************************
 DATASETS  * FILE   NREC   LENGTH (MB)   RECORD NAMES
              1      19       31.63       500      610      700      900      950      970     1000      129      960     1100   
                                          VAR    BASINP    GEOM    SYMINP    ZMAT    AOBASIS   BASIS     P2S    ABASIS      S 
                                         1400     1410     1420     1200     1210     1080     1700     1600     1650   
                                           T        V       ECP      H0       H01     AOSYM    OPER      SMH    MOLCAS    

 PROGRAMS   *        TOTAL       INT      GRID
 CPU TIMES  *         9.55      9.32      0.00
 REAL TIME  *        18.50 SEC
 DISK USED  *        32.04 MB (local),        1.20 GB (total)
 GA USED    *         0.00 MB       (max)       0.00 MB       (current)
 **********************************************************************************************************************************


 PROGRAM * RHF-SCF (CLOSED SHELL)       Authors: W. Meyer, H.-J. Werner


 NUMBER OF ELECTRONS:      12+   12-    SPACE SYMMETRY=1    SPIN SYMMETRY: Singlet 
 CONVERGENCE THRESHOLDS:    1.00E-07 (Density)    1.00E-07 (Energy)
 MAX. NUMBER OF ITERATIONS:       60
 INTERPOLATION TYPE:            DIIS
 INTERPOLATION STEPS:              2 (START)      1 (STEP)
 LEVEL SHIFTS:                  0.00 (CLOSED)  0.00 (OPEN) 



 Orbital guess generated from atomic densities. Full valence occupancy:   12

 Molecular orbital dump at record        2100.2

 Initial occupancy:  12

 ITERATION    DDIFF          GRAD             ENERGY        2-EL.EN.            DIPOLE MOMENTS         DIIS   ORB.
    1      0.000D+00      0.000D+00       -63.80334136    144.007488    6.55881   -3.28542   -0.00049    0    start
    2      0.000D+00      0.323D-02       -63.83721052    143.163540    7.41714   -3.28648   -0.00044    1    diag
    3      0.401D-02      0.101D-02       -63.84132976    143.017634    7.38723   -3.28658   -0.00047    2    diag
    4      0.971D-03      0.428D-03       -63.84231920    143.085522    7.45764   -3.28666   -0.00047    3    diag
    5      0.459D-03      0.127D-03       -63.84244518    142.987877    7.50357   -3.28675   -0.00047    4    diag
    6      0.160D-03      0.647D-04       -63.84247200    142.999639    7.51510   -3.28677   -0.00047    5    diag
    7      0.955D-04      0.138D-04       -63.84247388    142.994810    7.52203   -3.28678   -0.00047    6    diag
    8      0.246D-04      0.401D-05       -63.84247401    142.994810    7.52416   -3.28678   -0.00047    7    diag
    9      0.749D-05      0.105D-05       -63.84247402    142.994769    7.52463   -3.28678   -0.00047    8    diag
   10      0.214D-05      0.374D-06       -63.84247402    142.994751    7.52498   -3.28679   -0.00047    9    orth
   11      0.866D-06      0.972D-07       -63.84247402    142.994752    7.52505   -3.28679   -0.00047    9    diag
   12      0.227D-06      0.215D-07       -63.84247402    142.994752    7.52506   -3.28679   -0.00047    9    diag
   13      0.496D-07      0.431D-08       -63.84247402    142.994752    7.52506   -3.28679   -0.00047    0    orth

 Final occupancy:  12

 !RHF STATE  1.1 Energy               -63.842474024253
 Nuclear energy                        39.00993010
 One-electron energy                 -174.34978036
 Two-electron energy                   71.49737624
 Virial quotient                       -1.35199659
 !RHF STATE  1.1 Dipole moment          7.52506247    -3.28678531    -0.00046999
 Dipole moment /Debye                  19.12554828    -8.35362782    -0.00119452

 Orbital energies:

         1.1          2.1          3.1          4.1          5.1          6.1          7.1          8.1          9.1         10.1
    -11.187989    -0.842363    -0.774241    -0.693488    -0.494432    -0.494410    -0.256045    -0.200148    -0.200146    -0.184282

        11.1         12.1         13.1         14.1
     -0.184281    -0.165689     0.209763     0.282400


 HOMO     12.1    -0.165689 =      -4.5086eV
 LUMO     13.1     0.209763 =       5.7079eV
 LUMO-HOMO         0.375452 =      10.2166eV


 **********************************************************************************************************************************
 DATASETS  * FILE   NREC   LENGTH (MB)   RECORD NAMES
              1      19       31.63       500      610      700      900      950      970     1000      129      960     1100   
                                          VAR    BASINP    GEOM    SYMINP    ZMAT    AOBASIS   BASIS     P2S    ABASIS      S 
                                         1400     1410     1420     1200     1210     1080     1700     1600     1650   
                                           T        V       ECP      H0       H01     AOSYM    OPER      SMH    MOLCAS    

              2       4        3.45       700     1000      520     2100   
                                         GEOM     BASIS   MCVARS     RHF  

 PROGRAMS   *        TOTAL    HF-SCF       INT      GRID
 CPU TIMES  *        14.49      4.94      9.32      0.00
 REAL TIME  *        23.71 SEC
 DISK USED  *        37.26 MB (local),        1.22 GB (total)
 SF USED    *         0.12 MB
 GA USED    *         0.00 MB       (max)       0.00 MB       (current)
 **********************************************************************************************************************************


 PROGRAM * MP2 (Closed-shell)     Authors: C. Hampel, H.-J. Werner, 1991, M. Deegan, P.J. Knowles, 1992


 Convergence thresholds:  THRVAR = 1.00D-08  THRDEN = 1.00D-06

 Number of core orbitals:           1 (   1 )
 Number of closed-shell orbitals:  11 (  11 )
 Number of external orbitals:     159 ( 159 )

 Molecular orbitals read from record     2100.2  Type=RHF/CANONICAL (state 1.1)

 Number of N-1 electron functions:              11
 Number of N-2 electron functions:              66
 Number of singly external CSFs:              1749
 Number of doubly external CSFs:           1530375
 Total number of CSFs:                     1532125

 Length of J-op  integral file:               0.00 MB
 Length of K-op  integral file:               2.01 MB

 Integral transformation finished. Total CPU:   1.29 sec, npass=  1  Memory used:   3.86 MW

 Memory needed for MP2:                      0.14 MW

 SCS-MP2 correlation energy:           -0.515767584687   (PS=  1.200000  PT=  0.333333)
 SCS-MP2 total energy:                -64.358241608940


  Reference energy                    -63.842474024253
  MP2 singlet pair energy              -0.337075645333
  MP2 triplet pair energy              -0.178837730818
  MP2 correlation energy               -0.515913376151

 !MP2 total energy                    -64.358387400405


 **********************************************************************************************************************************
 DATASETS  * FILE   NREC   LENGTH (MB)   RECORD NAMES
              1      20       55.30       500      610      700      900      950      970     1000      129      960     1100   
                                          VAR    BASINP    GEOM    SYMINP    ZMAT    AOBASIS   BASIS     P2S    ABASIS      S 
                                         1400     1410     1420     1200     1210     1080     1700     1600     1650     1380   
                                           T        V       ECP      H0       H01     AOSYM    OPER      SMH    MOLCAS    JKOP   

              2       4        3.45       700     1000      520     2100   
                                         GEOM     BASIS   MCVARS     RHF  

 PROGRAMS   *        TOTAL       MP2    HF-SCF       INT      GRID
 CPU TIMES  *        16.00      1.50      4.94      9.32      0.00
 REAL TIME  *        25.34 SEC
 DISK USED  *        58.82 MB (local),        1.31 GB (total)
 SF USED    *        59.54 MB
 GA USED    *         0.00 MB       (max)       0.00 MB       (current)
 **********************************************************************************************************************************
 Molecular orbitals read from record     2100.2  Type=RHF/CANONICAL (state 1.1)
 Occupation numbers read from record     2100.2  Type=RHF/RHF (state 1.1)
 Orbital energies read from record       2100.2  Type=RHF/CANONICAL (state 1.1)
 Redundancy group numbers read from rec  2100.2  Type=RHF/RHF (state 1.1)

 MP2/USERDEF energy=    -64.358387400405

             MP2          HF-SCF
    -64.35838740    -63.84247402
 **********************************************************************************************************************************
 Molpro calculation terminated
